<?xml version="1.0" encoding="UTF-8"?>

<!-- generated on 2025-11-04 17:41:51 by Eclipse SUMO GUI Version 1.24.0
<sumoConfiguration xmlns:xsi="http://www.w3.org/2001/XMLSchema-instance" xsi:noNamespaceSchemaLocation="http://sumo.dlr.de/xsd/sumoConfiguration.xsd">

    <input>
        <net-file value="test/crossroad.net.xml"/>
        <route-files value="test/traffic.rou.xml"/>
        <additional-files value="test/traffic_light.add.xml, test/bus_stops.add.xml"/>
    </input>

    <output>
        <queue-output value="output/20251104_174150/queue.xml"/>
        <tripinfo-output value="output/20251104_174150/tripinfo.xml"/>
    </output>

    <time>
        <begin value="0"/>
        <end value="3600"/>
        <step-length value="0.1"/>
    </time>

    <processing>
        <lateral-resolution value="0.2"/>
    </processing>

    <report>
        <verbose value="true"/>
        <no-step-log value="true"/>
    </report>

    <emissions>
        <device.emissions.probability value="1"/>
    </emissions>

    <traci_server>
        <remote-port value="6434"/>
    </traci_server>

    <gui_only>
        <start value="true"/>
    </gui_only>

</sumoConfiguration>
-->

<tripinfos xmlns:xsi="http://www.w3.org/2001/XMLSchema-instance" xsi:noNamespaceSchemaLocation="http://sumo.dlr.de/xsd/tripinfo_file.xsd">

    <tripinfo id="f_5_west_in_far_right_0.0" depart="0.00" departLane="west_in_far_3" departPos="4.60" departPosLat="0.00" departSpeed="0.82" departDelay="0.00" arrival="58.50" arrivalLane="north_out_1" arrivalPos="478.50" arrivalPosLat="-0.00" arrivalSpeed="18.69" duration="58.50" routeLength="991.36" waitingTime="0.00" waitingCount="0" stopTime="0.00" timeLoss="4.90" rerouteNo="0" devices="tripinfo_f_5_west_in_far_right_0.0 emissions_f_5_west_in_far_right_0.0" vType="mix_private" speedFactor="1.12" vaporized="">
        <emissions CO_abs="1847.09" CO2_abs="203416.86" HC_abs="12.41" PMx_abs="24.80" NOx_abs="74.56" fuel_abs="65944.78" electricity_abs="0.00"/>
    </tripinfo>

    <tripinfo id="f_8_north_in_far_right_0.0" depart="0.00" departLane="north_in_far_0" departPos="4.60" departPosLat="0.00" departSpeed="9.47" departDelay="0.00" arrival="60.10" arrivalLane="west_out_1" arrivalPos="478.50" arrivalPosLat="-0.36" arrivalSpeed="17.30" duration="60.10" routeLength="969.21" waitingTime="0.00" waitingCount="0" stopTime="0.00" timeLoss="3.35" rerouteNo="0" devices="tripinfo_f_8_north_in_far_right_0.0 emissions_f_8_north_in_far_right_0.0" vType="mix_private" speedFactor="1.04" vaporized="">
        <emissions CO_abs="1630.98" CO2_abs="189913.62" HC_abs="10.94" PMx_abs="22.96" NOx_abs="69.46" fuel_abs="61567.37" electricity_abs="0.00"/>
    </tripinfo>

    <tripinfo id="f_11_south_in_far_right_0.0" depart="0.00" departLane="south_in_far_0" departPos="7.60" departPosLat="0.00" departSpeed="11.28" departDelay="0.00" arrival="62.80" arrivalLane="east_out_0" arrivalPos="478.50" arrivalPosLat="-0.00" arrivalSpeed="16.67" duration="62.80" routeLength="966.21" waitingTime="0.00" waitingCount="0" stopTime="0.00" timeLoss="4.14" rerouteNo="0" devices="tripinfo_f_11_south_in_far_right_0.0 emissions_f_11_south_in_far_right_0.0" vType="mix_truck" speedFactor="1.01" vaporized="">
        <emissions CO_abs="91.46" CO2_abs="506784.39" HC_abs="9.27" PMx_abs="97.52" NOx_abs="221.86" fuel_abs="162878.18" electricity_abs="0.00"/>
    </tripinfo>

    <tripinfo id="f_2_east_in_far_right_0.0" depart="0.00" departLane="east_in_far_3" departPos="4.60" departPosLat="0.00" departSpeed="0.77" departDelay="0.00" arrival="64.00" arrivalLane="south_out_1" arrivalPos="478.50" arrivalPosLat="-0.00" arrivalSpeed="16.85" duration="64.00" routeLength="991.36" waitingTime="0.00" waitingCount="0" stopTime="0.00" timeLoss="4.54" rerouteNo="0" devices="tripinfo_f_2_east_in_far_right_0.0 emissions_f_2_east_in_far_right_0.0" vType="mix_private" speedFactor="1.01" vaporized="">
        <emissions CO_abs="1541.11" CO2_abs="194276.33" HC_abs="10.35" PMx_abs="23.40" NOx_abs="69.91" fuel_abs="62981.66" electricity_abs="0.00"/>
    </tripinfo>

    <tripinfo id="f_4_west_in_far_left_0.0" depart="0.00" departLane="west_in_far_0" departPos="4.60" departPosLat="0.00" departSpeed="9.08" departDelay="0.00" arrival="66.80" arrivalLane="south_out_0" arrivalPos="478.50" arrivalPosLat="-0.00" arrivalSpeed="15.27" duration="66.80" routeLength="969.21" waitingTime="0.00" waitingCount="0" stopTime="0.00" timeLoss="2.80" rerouteNo="0" devices="tripinfo_f_4_west_in_far_left_0.0 emissions_f_4_west_in_far_left_0.0" vType="mix_private" speedFactor="0.92" vaporized="">
        <emissions CO_abs="1304.40" CO2_abs="180434.77" HC_abs="8.74" PMx_abs="21.85" NOx_abs="64.72" fuel_abs="58494.59" electricity_abs="0.00"/>
    </tripinfo>

    <tripinfo id="f_1_east_in_far_left_0.0" depart="0.00" departLane="east_in_far_0" departPos="4.60" departPosLat="0.00" departSpeed="10.52" departDelay="0.00" arrival="69.10" arrivalLane="north_out_0" arrivalPos="478.50" arrivalPosLat="-0.00" arrivalSpeed="14.66" duration="69.10" routeLength="969.21" waitingTime="0.00" waitingCount="0" stopTime="0.00" timeLoss="2.39" rerouteNo="0" devices="tripinfo_f_1_east_in_far_left_0.0 emissions_f_1_east_in_far_left_0.0" vType="mix_private" speedFactor="0.89" vaporized="">
        <emissions CO_abs="1135.26" CO2_abs="171035.46" HC_abs="7.62" PMx_abs="21.67" NOx_abs="61.21" fuel_abs="55447.56" electricity_abs="0.00"/>
    </tripinfo>

    <tripinfo id="f_9_south_in_far_straight_0.0" depart="0.00" departLane="south_in_far_1" departPos="4.60" departPosLat="0.00" departSpeed="11.63" departDelay="0.00" arrival="74.40" arrivalLane="north_out_0" arrivalPos="478.50" arrivalPosLat="-0.00" arrivalSpeed="15.59" duration="74.40" routeLength="997.00" waitingTime="2.40" waitingCount="1" stopTime="0.00" timeLoss="10.43" rerouteNo="0" devices="tripinfo_f_9_south_in_far_straight_0.0 emissions_f_9_south_in_far_straight_0.0" vType="mix_private" speedFactor="0.94" vaporized="">
        <emissions CO_abs="1527.43" CO2_abs="215760.00" HC_abs="10.21" PMx_abs="22.57" NOx_abs="75.88" fuel_abs="69946.31" electricity_abs="0.00"/>
    </tripinfo>

    <tripinfo id="f_6_north_in_far_straight_0.0" depart="0.00" departLane="north_in_far_1" departPos="4.60" departPosLat="0.00" departSpeed="11.16" departDelay="0.00" arrival="75.50" arrivalLane="south_out_0" arrivalPos="478.50" arrivalPosLat="-0.00" arrivalSpeed="14.94" duration="75.50" routeLength="997.00" waitingTime="1.50" waitingCount="1" stopTime="0.00" timeLoss="9.02" rerouteNo="0" devices="tripinfo_f_6_north_in_far_straight_0.0 emissions_f_6_north_in_far_straight_0.0" vType="mix_private" speedFactor="0.90" vaporized="">
        <emissions CO_abs="1384.20" CO2_abs="208872.69" HC_abs="9.26" PMx_abs="22.56" NOx_abs="72.91" fuel_abs="67713.61" electricity_abs="0.00"/>
    </tripinfo>

    <tripinfo id="f_10_south_in_far_left_0.0" depart="0.00" departLane="south_in_far_3" departPos="4.60" departPosLat="0.00" departSpeed="0.11" departDelay="0.00" arrival="93.10" arrivalLane="west_out_1" arrivalPos="478.50" arrivalPosLat="-0.00" arrivalSpeed="18.00" duration="93.10" routeLength="991.36" waitingTime="27.30" waitingCount="1" stopTime="0.00" timeLoss="37.46" rerouteNo="0" devices="tripinfo_f_10_south_in_far_left_0.0 emissions_f_10_south_in_far_left_0.0" vType="mix_private" speedFactor="1.08" vaporized="">
        <emissions CO_abs="1854.57" CO2_abs="269981.14" HC_abs="12.43" PMx_abs="24.40" NOx_abs="97.33" fuel_abs="87524.13" electricity_abs="0.00"/>
    </tripinfo>

    <tripinfo id="f_7_north_in_far_left_0.0" depart="0.00" departLane="north_in_far_3" departPos="4.60" departPosLat="0.00" departSpeed="3.97" departDelay="0.00" arrival="95.80" arrivalLane="east_out_1" arrivalPos="478.50" arrivalPosLat="-0.00" arrivalSpeed="15.99" duration="95.80" routeLength="991.36" waitingTime="26.60" waitingCount="1" stopTime="0.00" timeLoss="33.26" rerouteNo="0" devices="tripinfo_f_7_north_in_far_left_0.0 emissions_f_7_north_in_far_left_0.0" vType="mix_taxi" speedFactor="0.96" vaporized="">
        <emissions CO_abs="1419.90" CO2_abs="244363.13" HC_abs="9.54" PMx_abs="23.67" NOx_abs="87.51" fuel_abs="79219.43" electricity_abs="0.00"/>
    </tripinfo>

    <tripinfo id="f_3_west_in_far_straight_0.0" depart="0.00" departLane="west_in_far_1" departPos="4.60" departPosLat="0.00" departSpeed="8.94" departDelay="0.00" arrival="106.10" arrivalLane="east_out_1" arrivalPos="478.50" arrivalPosLat="0.00" arrivalSpeed="18.17" duration="106.10" routeLength="997.00" waitingTime="40.80" waitingCount="1" stopTime="0.00" timeLoss="51.24" rerouteNo="0" devices="tripinfo_f_3_west_in_far_straight_0.0 emissions_f_3_west_in_far_straight_0.0" vType="mix_private" speedFactor="1.09" vaporized="">
        <emissions CO_abs="2102.05" CO2_abs="306170.00" HC_abs="14.06" PMx_abs="25.09" NOx_abs="112.24" fuel_abs="99256.24" electricity_abs="0.00"/>
    </tripinfo>

    <tripinfo id="f_0_east_in_far_straight_0.0" depart="0.00" departLane="east_in_far_1" departPos="4.60" departPosLat="0.00" departSpeed="12.51" departDelay="0.00" arrival="113.70" arrivalLane="west_out_0" arrivalPos="478.50" arrivalPosLat="-0.00" arrivalSpeed="13.95" duration="113.70" routeLength="997.00" waitingTime="35.90" waitingCount="1" stopTime="0.00" timeLoss="42.70" rerouteNo="0" devices="tripinfo_f_0_east_in_far_straight_0.0 emissions_f_0_east_in_far_straight_0.0" vType="mix_private" speedFactor="0.84" vaporized="">
        <emissions CO_abs="1193.34" CO2_abs="250266.13" HC_abs="7.98" PMx_abs="21.38" NOx_abs="89.73" fuel_abs="81133.30" electricity_abs="0.00"/>
    </tripinfo>

    <tripinfo id="bus_line2_0" depart="60.00" departLane="north_in_far_0" departPos="12.10" departPosLat="0.00" departSpeed="0.00" departDelay="0.00" arrival="203.80" arrivalLane="south_out_0" arrivalPos="478.50" arrivalPosLat="0.00" arrivalSpeed="16.64" duration="143.80" routeLength="989.50" waitingTime="0.00" waitingCount="0" stopTime="60.00" timeLoss="24.39" rerouteNo="0" devices="tripinfo_bus_line2_0 emissions_bus_line2_0" vType="bus" speedFactor="1.00" vaporized="">
        <emissions CO_abs="389.07" CO2_abs="1685170.75" HC_abs="31.36" PMx_abs="234.55" NOx_abs="761.64" fuel_abs="541561.36" electricity_abs="0.00"/>
    </tripinfo>

    <tripinfo id="bus_line1_0" depart="60.00" departLane="east_in_far_0" departPos="12.10" departPosLat="0.00" departSpeed="0.00" departDelay="0.00" arrival="229.60" arrivalLane="west_out_0" arrivalPos="478.50" arrivalPosLat="0.00" arrivalSpeed="16.66" duration="169.60" routeLength="989.50" waitingTime="16.60" waitingCount="1" stopTime="60.00" timeLoss="50.19" rerouteNo="0" devices="tripinfo_bus_line1_0 emissions_bus_line1_0" vType="bus" speedFactor="1.00" vaporized="">
        <emissions CO_abs="463.75" CO2_abs="1982314.82" HC_abs="36.17" PMx_abs="263.25" NOx_abs="858.48" fuel_abs="637057.91" electricity_abs="0.00"/>
    </tripinfo>

    <tripinfo id="f_0_east_in_far_straight_0.1" depart="182.90" departLane="east_in_far_1" departPos="4.60" departPosLat="0.00" departSpeed="6.91" departDelay="0.07" arrival="263.50" arrivalLane="west_out_0" arrivalPos="478.50" arrivalPosLat="-0.00" arrivalSpeed="14.82" duration="80.60" routeLength="997.00" waitingTime="5.30" waitingCount="1" stopTime="0.00" timeLoss="13.34" rerouteNo="0" devices="tripinfo_f_0_east_in_far_straight_0.1 emissions_f_0_east_in_far_straight_0.1" vType="mix_private" speedFactor="0.89" vaporized="">
        <emissions CO_abs="1433.74" CO2_abs="225144.79" HC_abs="9.58" PMx_abs="22.61" NOx_abs="78.33" fuel_abs="72988.80" electricity_abs="0.00"/>
    </tripinfo>

    <tripinfo id="f_3_west_in_far_straight_0.1" depart="263.30" departLane="west_in_far_1" departPos="4.60" departPosLat="0.00" departSpeed="7.60" departDelay="0.02" arrival="331.40" arrivalLane="east_out_0" arrivalPos="478.50" arrivalPosLat="-0.00" arrivalSpeed="16.71" duration="68.10" routeLength="997.00" waitingTime="0.00" waitingCount="0" stopTime="0.00" timeLoss="8.77" rerouteNo="0" devices="tripinfo_f_3_west_in_far_straight_0.1 emissions_f_3_west_in_far_straight_0.1" vType="mix_private" speedFactor="1.01" vaporized="">
        <emissions CO_abs="1847.81" CO2_abs="231198.05" HC_abs="12.34" PMx_abs="23.38" NOx_abs="81.80" fuel_abs="74950.97" electricity_abs="0.00"/>
    </tripinfo>

    <tripinfo id="f_17_west_in_far_right_300.0" depart="300.00" departLane="west_in_far_3" departPos="4.60" departPosLat="0.00" departSpeed="9.43" departDelay="0.00" arrival="356.30" arrivalLane="north_out_2" arrivalPos="478.50" arrivalPosLat="0.00" arrivalSpeed="18.31" duration="56.30" routeLength="991.36" waitingTime="0.00" waitingCount="0" stopTime="0.00" timeLoss="1.65" rerouteNo="0" devices="tripinfo_f_17_west_in_far_right_300.0 emissions_f_17_west_in_far_right_300.0" vType="mix_private" speedFactor="1.10" vaporized="">
        <emissions CO_abs="1778.48" CO2_abs="185466.10" HC_abs="11.96" PMx_abs="24.28" NOx_abs="69.69" fuel_abs="60125.54" electricity_abs="0.00"/>
    </tripinfo>

    <tripinfo id="f_13_east_in_far_left_300.0" depart="300.00" departLane="east_in_far_0" departPos="4.60" departPosLat="0.00" departSpeed="14.52" departDelay="0.00" arrival="361.80" arrivalLane="north_out_0" arrivalPos="478.50" arrivalPosLat="-0.00" arrivalSpeed="16.56" duration="61.80" routeLength="969.21" waitingTime="0.00" waitingCount="0" stopTime="0.00" timeLoss="2.37" rerouteNo="0" devices="tripinfo_f_13_east_in_far_left_300.0 emissions_f_13_east_in_far_left_300.0" vType="mix_private" speedFactor="0.99" vaporized="">
        <emissions CO_abs="1400.04" CO2_abs="171740.64" HC_abs="9.40" PMx_abs="21.86" NOx_abs="62.84" fuel_abs="55676.03" electricity_abs="0.00"/>
    </tripinfo>

    <tripinfo id="f_14_east_in_far_right_300.0" depart="300.00" departLane="east_in_far_3" departPos="4.60" departPosLat="0.00" departSpeed="5.20" departDelay="0.00" arrival="364.50" arrivalLane="south_out_1" arrivalPos="478.50" arrivalPosLat="-0.00" arrivalSpeed="16.06" duration="64.50" routeLength="991.36" waitingTime="0.00" waitingCount="0" stopTime="0.00" timeLoss="2.36" rerouteNo="0" devices="tripinfo_f_14_east_in_far_right_300.0 emissions_f_14_east_in_far_right_300.0" vType="mix_private" speedFactor="0.97" vaporized="">
        <emissions CO_abs="1440.91" CO2_abs="183421.26" HC_abs="9.66" PMx_abs="22.43" NOx_abs="66.51" fuel_abs="59462.71" electricity_abs="0.00"/>
    </tripinfo>

    <tripinfo id="f_16_west_in_far_left_300.0" depart="300.00" departLane="west_in_far_0" departPos="4.60" departPosLat="0.00" departSpeed="0.72" departDelay="0.00" arrival="368.70" arrivalLane="south_out_0" arrivalPos="478.50" arrivalPosLat="-0.00" arrivalSpeed="15.56" duration="68.70" routeLength="969.21" waitingTime="0.00" waitingCount="0" stopTime="0.00" timeLoss="5.82" rerouteNo="0" devices="tripinfo_f_16_west_in_far_left_300.0 emissions_f_16_west_in_far_left_300.0" vType="mix_private" speedFactor="0.94" vaporized="">
        <emissions CO_abs="1357.65" CO2_abs="197956.90" HC_abs="9.10" PMx_abs="22.63" NOx_abs="69.44" fuel_abs="64174.89" electricity_abs="0.00"/>
    </tripinfo>

    <tripinfo id="f_23_south_in_far_right_300.0" depart="300.00" departLane="south_in_far_0" departPos="4.60" departPosLat="0.00" departSpeed="5.95" departDelay="0.00" arrival="369.10" arrivalLane="east_out_0" arrivalPos="478.50" arrivalPosLat="-0.00" arrivalSpeed="14.98" duration="69.10" routeLength="969.21" waitingTime="0.00" waitingCount="0" stopTime="0.00" timeLoss="3.45" rerouteNo="0" devices="tripinfo_f_23_south_in_far_right_300.0 emissions_f_23_south_in_far_right_300.0" vType="mix_private" speedFactor="0.90" vaporized="">
        <emissions CO_abs="1257.04" CO2_abs="186376.46" HC_abs="8.43" PMx_abs="22.30" NOx_abs="66.08" fuel_abs="60420.82" electricity_abs="0.00"/>
    </tripinfo>

    <tripinfo id="f_21_south_in_far_straight_300.0" depart="300.00" departLane="south_in_far_2" departPos="4.60" departPosLat="0.00" departSpeed="14.26" departDelay="0.00" arrival="373.20" arrivalLane="north_out_1" arrivalPos="478.50" arrivalPosLat="-0.00" arrivalSpeed="17.19" duration="73.20" routeLength="997.00" waitingTime="6.60" waitingCount="1" stopTime="0.00" timeLoss="15.50" rerouteNo="0" devices="tripinfo_f_21_south_in_far_straight_300.0 emissions_f_21_south_in_far_straight_300.0" vType="mix_private" speedFactor="1.04" vaporized="">
        <emissions CO_abs="1760.94" CO2_abs="227989.49" HC_abs="11.80" PMx_abs="24.19" NOx_abs="81.73" fuel_abs="73910.93" electricity_abs="0.00"/>
    </tripinfo>

    <tripinfo id="f_6_north_in_far_straight_0.1" depart="299.20" departLane="north_in_far_1" departPos="4.60" departPosLat="0.00" departSpeed="4.55" departDelay="0.02" arrival="373.30" arrivalLane="south_out_0" arrivalPos="478.50" arrivalPosLat="-0.00" arrivalSpeed="17.15" duration="74.10" routeLength="997.00" waitingTime="5.10" waitingCount="1" stopTime="0.00" timeLoss="16.11" rerouteNo="0" devices="tripinfo_f_6_north_in_far_straight_0.1 emissions_f_6_north_in_far_straight_0.1" vType="mix_private" speedFactor="1.03" vaporized="">
        <emissions CO_abs="1923.79" CO2_abs="250398.09" HC_abs="12.85" PMx_abs="23.81" NOx_abs="88.35" fuel_abs="81175.30" electricity_abs="0.00"/>
    </tripinfo>

    <tripinfo id="f_20_north_in_far_right_300.0" depart="303.30" departLane="north_in_far_0" departPos="4.60" departPosLat="0.00" departSpeed="1.93" departDelay="3.30" arrival="374.50" arrivalLane="west_out_1" arrivalPos="478.50" arrivalPosLat="0.00" arrivalSpeed="17.68" duration="71.20" routeLength="969.21" waitingTime="0.00" waitingCount="0" stopTime="0.00" timeLoss="15.69" rerouteNo="0" devices="tripinfo_f_20_north_in_far_right_300.0 emissions_f_20_north_in_far_right_300.0" vType="mix_private" speedFactor="1.07" vaporized="">
        <emissions CO_abs="1753.67" CO2_abs="230985.16" HC_abs="11.73" PMx_abs="23.36" NOx_abs="80.49" fuel_abs="74881.88" electricity_abs="0.00"/>
    </tripinfo>

    <tripinfo id="f_18_north_in_far_straight_300.0" depart="300.00" departLane="north_in_far_2" departPos="4.60" departPosLat="0.00" departSpeed="4.70" departDelay="0.00" arrival="377.80" arrivalLane="south_out_0" arrivalPos="478.50" arrivalPosLat="-0.00" arrivalSpeed="15.26" duration="77.80" routeLength="997.00" waitingTime="0.00" waitingCount="0" stopTime="0.00" timeLoss="12.57" rerouteNo="0" devices="tripinfo_f_18_north_in_far_straight_300.0 emissions_f_18_north_in_far_straight_300.0" vType="mix_taxi" speedFactor="0.92" vaporized="">
        <emissions CO_abs="1447.96" CO2_abs="220437.83" HC_abs="9.68" PMx_abs="22.69" NOx_abs="76.01" fuel_abs="71462.79" electricity_abs="0.00"/>
    </tripinfo>

    <tripinfo id="f_9_south_in_far_straight_0.1" depart="292.60" departLane="south_in_far_1" departPos="4.60" departPosLat="0.00" departSpeed="8.24" departDelay="0.07" arrival="378.50" arrivalLane="north_out_0" arrivalPos="478.50" arrivalPosLat="-0.00" arrivalSpeed="14.42" duration="85.90" routeLength="997.00" waitingTime="9.50" waitingCount="1" stopTime="0.00" timeLoss="17.28" rerouteNo="0" devices="tripinfo_f_9_south_in_far_straight_0.1 emissions_f_9_south_in_far_straight_0.1" vType="mix_private" speedFactor="0.87" vaporized="">
        <emissions CO_abs="1321.29" CO2_abs="223043.53" HC_abs="8.84" PMx_abs="22.39" NOx_abs="77.97" fuel_abs="72307.73" electricity_abs="0.00"/>
    </tripinfo>

    <tripinfo id="bus_line1_1" depart="240.00" departLane="east_in_far_0" departPos="12.10" departPosLat="0.00" departSpeed="0.00" departDelay="0.00" arrival="383.90" arrivalLane="west_out_0" arrivalPos="478.50" arrivalPosLat="0.00" arrivalSpeed="16.63" duration="143.90" routeLength="989.50" waitingTime="0.00" waitingCount="0" stopTime="60.00" timeLoss="24.52" rerouteNo="0" devices="tripinfo_bus_line1_1 emissions_bus_line1_1" vType="bus" speedFactor="1.00" vaporized="">
        <emissions CO_abs="386.29" CO2_abs="1674940.31" HC_abs="31.08" PMx_abs="231.21" NOx_abs="751.99" fuel_abs="538274.09" electricity_abs="0.00"/>
    </tripinfo>

    <tripinfo id="f_19_north_in_far_left_300.0" depart="300.00" departLane="north_in_far_3" departPos="4.60" departPosLat="0.00" departSpeed="10.88" departDelay="0.00" arrival="396.00" arrivalLane="east_out_1" arrivalPos="478.50" arrivalPosLat="-0.00" arrivalSpeed="17.05" duration="96.00" routeLength="991.36" waitingTime="31.40" waitingCount="1" stopTime="0.00" timeLoss="37.62" rerouteNo="0" devices="tripinfo_f_19_north_in_far_left_300.0 emissions_f_19_north_in_far_left_300.0" vType="mix_private" speedFactor="1.03" vaporized="">
        <emissions CO_abs="1626.23" CO2_abs="248300.72" HC_abs="10.91" PMx_abs="23.80" NOx_abs="91.33" fuel_abs="80495.96" electricity_abs="0.00"/>
    </tripinfo>

    <tripinfo id="f_22_south_in_far_left_300.0" depart="300.00" departLane="south_in_far_3" departPos="4.60" departPosLat="0.00" departSpeed="11.40" departDelay="0.00" arrival="405.50" arrivalLane="west_out_0" arrivalPos="478.50" arrivalPosLat="-0.00" arrivalSpeed="12.78" duration="105.50" routeLength="991.36" waitingTime="23.00" waitingCount="1" stopTime="0.00" timeLoss="27.43" rerouteNo="0" devices="tripinfo_f_22_south_in_far_left_300.0 emissions_f_22_south_in_far_left_300.0" vType="mix_private" speedFactor="0.77" vaporized="">
        <emissions CO_abs="929.73" CO2_abs="213072.64" HC_abs="6.23" PMx_abs="20.45" NOx_abs="75.83" fuel_abs="69075.68" electricity_abs="0.00"/>
    </tripinfo>

    <tripinfo id="f_12_east_in_far_straight_300.0" depart="300.00" departLane="east_in_far_1" departPos="4.60" departPosLat="0.00" departSpeed="1.13" departDelay="0.00" arrival="407.10" arrivalLane="west_out_1" arrivalPos="478.50" arrivalPosLat="0.00" arrivalSpeed="18.60" duration="107.10" routeLength="997.00" waitingTime="40.00" waitingCount="1" stopTime="0.00" timeLoss="53.74" rerouteNo="0" devices="tripinfo_f_12_east_in_far_straight_300.0 emissions_f_12_east_in_far_straight_300.0" vType="mix_private" speedFactor="1.12" vaporized="">
        <emissions CO_abs="2230.46" CO2_abs="324433.58" HC_abs="14.90" PMx_abs="25.46" NOx_abs="117.54" fuel_abs="105176.86" electricity_abs="0.00"/>
    </tripinfo>

    <tripinfo id="f_15_west_in_far_straight_300.0" depart="300.00" departLane="west_in_far_1" departPos="7.60" departPosLat="0.00" departSpeed="11.51" departDelay="0.00" arrival="412.10" arrivalLane="east_out_0" arrivalPos="478.50" arrivalPosLat="-0.00" arrivalSpeed="16.78" duration="112.10" routeLength="994.00" waitingTime="39.60" waitingCount="1" stopTime="0.00" timeLoss="53.05" rerouteNo="0" devices="tripinfo_f_15_west_in_far_straight_300.0 emissions_f_15_west_in_far_straight_300.0" vType="mix_truck" speedFactor="1.01" vaporized="">
        <emissions CO_abs="158.49" CO2_abs="679289.08" HC_abs="14.29" PMx_abs="164.62" NOx_abs="242.73" fuel_abs="218310.85" electricity_abs="0.00"/>
    </tripinfo>

    <tripinfo id="f_12_east_in_far_straight_300.1" depart="352.40" departLane="east_in_far_1" departPos="4.60" departPosLat="0.00" departSpeed="10.81" departDelay="0.02" arrival="414.20" arrivalLane="west_out_0" arrivalPos="478.50" arrivalPosLat="-0.00" arrivalSpeed="16.83" duration="61.80" routeLength="997.00" waitingTime="0.00" waitingCount="0" stopTime="0.00" timeLoss="2.61" rerouteNo="0" devices="tripinfo_f_12_east_in_far_straight_300.1 emissions_f_12_east_in_far_straight_300.1" vType="mix_taxi" speedFactor="1.01" vaporized="">
        <emissions CO_abs="1523.63" CO2_abs="184659.30" HC_abs="10.24" PMx_abs="23.86" NOx_abs="67.49" fuel_abs="59864.09" electricity_abs="0.00"/>
    </tripinfo>

    <tripinfo id="f_18_north_in_far_straight_300.1" depart="385.80" departLane="north_in_far_1" departPos="4.60" departPosLat="0.00" departSpeed="5.43" departDelay="0.08" arrival="443.00" arrivalLane="south_out_1" arrivalPos="478.50" arrivalPosLat="0.00" arrivalSpeed="19.39" duration="57.20" routeLength="997.00" waitingTime="0.00" waitingCount="0" stopTime="0.00" timeLoss="5.96" rerouteNo="0" devices="tripinfo_f_18_north_in_far_straight_300.1 emissions_f_18_north_in_far_straight_300.1" vType="mix_private" speedFactor="1.17" vaporized="">
        <emissions CO_abs="2131.54" CO2_abs="222269.69" HC_abs="14.31" PMx_abs="25.96" NOx_abs="81.92" fuel_abs="72056.56" electricity_abs="0.00"/>
    </tripinfo>

    <tripinfo id="f_21_south_in_far_straight_300.1" depart="383.90" departLane="south_in_far_1" departPos="4.60" departPosLat="0.00" departSpeed="0.49" departDelay="0.09" arrival="447.00" arrivalLane="north_out_0" arrivalPos="478.50" arrivalPosLat="-0.00" arrivalSpeed="17.66" duration="63.10" routeLength="997.00" waitingTime="0.00" waitingCount="0" stopTime="0.00" timeLoss="6.81" rerouteNo="0" devices="tripinfo_f_21_south_in_far_straight_300.1 emissions_f_21_south_in_far_straight_300.1" vType="mix_private" speedFactor="1.06" vaporized="">
        <emissions CO_abs="1782.37" CO2_abs="215497.14" HC_abs="11.96" PMx_abs="24.64" NOx_abs="77.14" fuel_abs="69861.02" electricity_abs="0.00"/>
    </tripinfo>

    <tripinfo id="f_12_east_in_far_straight_300.2" depart="404.80" departLane="east_in_far_1" departPos="4.60" departPosLat="0.00" departSpeed="9.55" departDelay="0.03" arrival="478.00" arrivalLane="west_out_0" arrivalPos="478.50" arrivalPosLat="0.85" arrivalSpeed="17.37" duration="73.20" routeLength="997.00" waitingTime="6.40" waitingCount="1" stopTime="0.00" timeLoss="16.10" rerouteNo="0" devices="tripinfo_f_12_east_in_far_straight_300.2 emissions_f_12_east_in_far_straight_300.2" vType="mix_private" speedFactor="1.05" vaporized="">
        <emissions CO_abs="1939.09" CO2_abs="243206.47" HC_abs="12.96" PMx_abs="23.93" NOx_abs="87.05" fuel_abs="78843.95" electricity_abs="0.00"/>
    </tripinfo>

    <tripinfo id="f_15_west_in_far_straight_300.1" depart="375.50" departLane="west_in_far_1" departPos="7.60" departPosLat="0.00" departSpeed="2.38" departDelay="0.07" arrival="483.00" arrivalLane="east_out_0" arrivalPos="478.50" arrivalPosLat="-0.00" arrivalSpeed="15.60" duration="107.50" routeLength="994.00" waitingTime="27.90" waitingCount="1" stopTime="0.00" timeLoss="43.91" rerouteNo="0" devices="tripinfo_f_15_west_in_far_straight_300.1 emissions_f_15_west_in_far_straight_300.1" vType="mix_truck" speedFactor="0.94" vaporized="">
        <emissions CO_abs="159.30" CO2_abs="649964.28" HC_abs="13.60" PMx_abs="154.03" NOx_abs="237.90" fuel_abs="208885.73" electricity_abs="0.00"/>
    </tripinfo>

    <tripinfo id="bus_line2_1" depart="300.00" departLane="north_in_far_0" departPos="12.10" departPosLat="0.00" departSpeed="0.00" departDelay="0.00" arrival="484.70" arrivalLane="south_out_0" arrivalPos="478.50" arrivalPosLat="0.00" arrivalSpeed="16.63" duration="184.70" routeLength="989.50" waitingTime="31.60" waitingCount="1" stopTime="60.00" timeLoss="65.26" rerouteNo="0" devices="tripinfo_bus_line2_1 emissions_bus_line2_1" vType="bus" speedFactor="1.00" vaporized="">
        <emissions CO_abs="495.30" CO2_abs="2024885.78" HC_abs="38.12" PMx_abs="286.04" NOx_abs="924.84" fuel_abs="650738.88" electricity_abs="0.00"/>
    </tripinfo>

    <tripinfo id="f_16_west_in_far_left_300.1" depart="425.80" departLane="west_in_far_0" departPos="7.60" departPosLat="0.00" departSpeed="15.50" departDelay="0.08" arrival="488.20" arrivalLane="south_out_1" arrivalPos="478.50" arrivalPosLat="0.00" arrivalSpeed="16.65" duration="62.40" routeLength="966.21" waitingTime="0.00" waitingCount="0" stopTime="0.00" timeLoss="3.58" rerouteNo="0" devices="tripinfo_f_16_west_in_far_left_300.1 emissions_f_16_west_in_far_left_300.1" vType="mix_truck" speedFactor="1.00" vaporized="">
        <emissions CO_abs="85.62" CO2_abs="468332.37" HC_abs="8.71" PMx_abs="95.39" NOx_abs="212.36" fuel_abs="150521.15" electricity_abs="0.00"/>
    </tripinfo>

    <tripinfo id="f_23_south_in_far_right_300.1" depart="439.70" departLane="south_in_far_0" departPos="4.60" departPosLat="0.00" departSpeed="1.17" departDelay="0.01" arrival="501.50" arrivalLane="east_out_1" arrivalPos="478.50" arrivalPosLat="0.00" arrivalSpeed="17.43" duration="61.80" routeLength="969.21" waitingTime="0.00" waitingCount="0" stopTime="0.00" timeLoss="5.51" rerouteNo="0" devices="tripinfo_f_23_south_in_far_right_300.1 emissions_f_23_south_in_far_right_300.1" vType="mix_taxi" speedFactor="1.05" vaporized="">
        <emissions CO_abs="1665.37" CO2_abs="206248.41" HC_abs="11.18" PMx_abs="23.94" NOx_abs="73.65" fuel_abs="66862.77" electricity_abs="0.00"/>
    </tripinfo>

    <tripinfo id="f_13_east_in_far_left_300.1" depart="457.20" departLane="east_in_far_0" departPos="4.60" departPosLat="0.00" departSpeed="5.36" departDelay="0.05" arrival="519.60" arrivalLane="north_out_0" arrivalPos="478.50" arrivalPosLat="1.15" arrivalSpeed="16.96" duration="62.40" routeLength="969.21" waitingTime="0.00" waitingCount="0" stopTime="0.00" timeLoss="4.67" rerouteNo="0" devices="tripinfo_f_13_east_in_far_left_300.1 emissions_f_13_east_in_far_left_300.1" vType="mix_private" speedFactor="1.02" vaporized="">
        <emissions CO_abs="1633.14" CO2_abs="199133.94" HC_abs="10.94" PMx_abs="22.72" NOx_abs="71.81" fuel_abs="64556.42" electricity_abs="0.00"/>
    </tripinfo>

    <tripinfo id="f_21_south_in_far_straight_300.2" depart="467.70" departLane="south_in_far_1" departPos="4.60" departPosLat="0.00" departSpeed="1.60" departDelay="0.08" arrival="528.10" arrivalLane="north_out_0" arrivalPos="478.50" arrivalPosLat="0.45" arrivalSpeed="18.64" duration="60.40" routeLength="997.00" waitingTime="0.00" waitingCount="0" stopTime="0.00" timeLoss="6.88" rerouteNo="0" devices="tripinfo_f_21_south_in_far_straight_300.2 emissions_f_21_south_in_far_straight_300.2" vType="mix_private" speedFactor="1.12" vaporized="">
        <emissions CO_abs="1994.94" CO2_abs="222974.83" HC_abs="13.38" PMx_abs="25.17" NOx_abs="80.79" fuel_abs="72285.12" electricity_abs="0.00"/>
    </tripinfo>
