<?xml version="1.0" encoding="UTF-8"?>

<!-- generated on 2025-11-04 17:45:43 by Eclipse SUMO GUI Version 1.24.0
<sumoConfiguration xmlns:xsi="http://www.w3.org/2001/XMLSchema-instance" xsi:noNamespaceSchemaLocation="http://sumo.dlr.de/xsd/sumoConfiguration.xsd">

    <input>
        <net-file value="test/crossroad.net.xml"/>
        <route-files value="test/traffic.rou.xml"/>
        <additional-files value="test/traffic_light.add.xml, test/bus_stops.add.xml"/>
    </input>

    <output>
        <queue-output value="output/20251104_174542/queue.xml"/>
        <tripinfo-output value="output/20251104_174542/tripinfo.xml"/>
    </output>

    <time>
        <begin value="0"/>
        <end value="3600"/>
        <step-length value="0.1"/>
    </time>

    <processing>
        <lateral-resolution value="0.2"/>
    </processing>

    <report>
        <verbose value="true"/>
        <no-step-log value="true"/>
    </report>

    <emissions>
        <device.emissions.probability value="1"/>
    </emissions>

    <traci_server>
        <remote-port value="7119"/>
    </traci_server>

    <gui_only>
        <start value="true"/>
    </gui_only>

</sumoConfiguration>
-->

<tripinfos xmlns:xsi="http://www.w3.org/2001/XMLSchema-instance" xsi:noNamespaceSchemaLocation="http://sumo.dlr.de/xsd/tripinfo_file.xsd">

    <tripinfo id="f_5_west_in_far_right_0.0" depart="0.00" departLane="west_in_far_3" departPos="4.60" departPosLat="0.00" departSpeed="0.82" departDelay="0.00" arrival="58.50" arrivalLane="north_out_1" arrivalPos="478.50" arrivalPosLat="-0.00" arrivalSpeed="18.69" duration="58.50" routeLength="991.36" waitingTime="0.00" waitingCount="0" stopTime="0.00" timeLoss="4.90" rerouteNo="0" devices="tripinfo_f_5_west_in_far_right_0.0 emissions_f_5_west_in_far_right_0.0" vType="mix_private" speedFactor="1.12" vaporized="">
        <emissions CO_abs="1847.09" CO2_abs="203416.86" HC_abs="12.41" PMx_abs="24.80" NOx_abs="74.56" fuel_abs="65944.78" electricity_abs="0.00"/>
    </tripinfo>

    <tripinfo id="f_8_north_in_far_right_0.0" depart="0.00" departLane="north_in_far_0" departPos="4.60" departPosLat="0.00" departSpeed="9.47" departDelay="0.00" arrival="60.10" arrivalLane="west_out_1" arrivalPos="478.50" arrivalPosLat="-0.36" arrivalSpeed="17.30" duration="60.10" routeLength="969.21" waitingTime="0.00" waitingCount="0" stopTime="0.00" timeLoss="3.35" rerouteNo="0" devices="tripinfo_f_8_north_in_far_right_0.0 emissions_f_8_north_in_far_right_0.0" vType="mix_private" speedFactor="1.04" vaporized="">
        <emissions CO_abs="1630.98" CO2_abs="189913.62" HC_abs="10.94" PMx_abs="22.96" NOx_abs="69.46" fuel_abs="61567.37" electricity_abs="0.00"/>
    </tripinfo>

    <tripinfo id="f_11_south_in_far_right_0.0" depart="0.00" departLane="south_in_far_0" departPos="7.60" departPosLat="0.00" departSpeed="11.28" departDelay="0.00" arrival="62.80" arrivalLane="east_out_0" arrivalPos="478.50" arrivalPosLat="-0.00" arrivalSpeed="16.67" duration="62.80" routeLength="966.21" waitingTime="0.00" waitingCount="0" stopTime="0.00" timeLoss="4.14" rerouteNo="0" devices="tripinfo_f_11_south_in_far_right_0.0 emissions_f_11_south_in_far_right_0.0" vType="mix_truck" speedFactor="1.01" vaporized="">
        <emissions CO_abs="91.46" CO2_abs="506784.39" HC_abs="9.27" PMx_abs="97.52" NOx_abs="221.86" fuel_abs="162878.18" electricity_abs="0.00"/>
    </tripinfo>

    <tripinfo id="f_2_east_in_far_right_0.0" depart="0.00" departLane="east_in_far_3" departPos="4.60" departPosLat="0.00" departSpeed="0.77" departDelay="0.00" arrival="64.00" arrivalLane="south_out_1" arrivalPos="478.50" arrivalPosLat="-0.00" arrivalSpeed="16.85" duration="64.00" routeLength="991.36" waitingTime="0.00" waitingCount="0" stopTime="0.00" timeLoss="4.54" rerouteNo="0" devices="tripinfo_f_2_east_in_far_right_0.0 emissions_f_2_east_in_far_right_0.0" vType="mix_private" speedFactor="1.01" vaporized="">
        <emissions CO_abs="1541.11" CO2_abs="194276.33" HC_abs="10.35" PMx_abs="23.40" NOx_abs="69.91" fuel_abs="62981.66" electricity_abs="0.00"/>
    </tripinfo>

    <tripinfo id="f_4_west_in_far_left_0.0" depart="0.00" departLane="west_in_far_0" departPos="4.60" departPosLat="0.00" departSpeed="9.08" departDelay="0.00" arrival="66.80" arrivalLane="south_out_0" arrivalPos="478.50" arrivalPosLat="-0.00" arrivalSpeed="15.27" duration="66.80" routeLength="969.21" waitingTime="0.00" waitingCount="0" stopTime="0.00" timeLoss="2.80" rerouteNo="0" devices="tripinfo_f_4_west_in_far_left_0.0 emissions_f_4_west_in_far_left_0.0" vType="mix_private" speedFactor="0.92" vaporized="">
        <emissions CO_abs="1304.40" CO2_abs="180434.77" HC_abs="8.74" PMx_abs="21.85" NOx_abs="64.72" fuel_abs="58494.59" electricity_abs="0.00"/>
    </tripinfo>

    <tripinfo id="f_1_east_in_far_left_0.0" depart="0.00" departLane="east_in_far_0" departPos="4.60" departPosLat="0.00" departSpeed="10.52" departDelay="0.00" arrival="69.10" arrivalLane="north_out_0" arrivalPos="478.50" arrivalPosLat="-0.00" arrivalSpeed="14.66" duration="69.10" routeLength="969.21" waitingTime="0.00" waitingCount="0" stopTime="0.00" timeLoss="2.39" rerouteNo="0" devices="tripinfo_f_1_east_in_far_left_0.0 emissions_f_1_east_in_far_left_0.0" vType="mix_private" speedFactor="0.89" vaporized="">
        <emissions CO_abs="1135.26" CO2_abs="171035.46" HC_abs="7.62" PMx_abs="21.67" NOx_abs="61.21" fuel_abs="55447.56" electricity_abs="0.00"/>
    </tripinfo>

    <tripinfo id="f_9_south_in_far_straight_0.0" depart="0.00" departLane="south_in_far_1" departPos="4.60" departPosLat="0.00" departSpeed="11.63" departDelay="0.00" arrival="74.40" arrivalLane="north_out_0" arrivalPos="478.50" arrivalPosLat="-0.00" arrivalSpeed="15.59" duration="74.40" routeLength="997.00" waitingTime="2.40" waitingCount="1" stopTime="0.00" timeLoss="10.43" rerouteNo="0" devices="tripinfo_f_9_south_in_far_straight_0.0 emissions_f_9_south_in_far_straight_0.0" vType="mix_private" speedFactor="0.94" vaporized="">
        <emissions CO_abs="1527.43" CO2_abs="215760.00" HC_abs="10.21" PMx_abs="22.57" NOx_abs="75.88" fuel_abs="69946.31" electricity_abs="0.00"/>
    </tripinfo>

    <tripinfo id="f_6_north_in_far_straight_0.0" depart="0.00" departLane="north_in_far_1" departPos="4.60" departPosLat="0.00" departSpeed="11.16" departDelay="0.00" arrival="75.50" arrivalLane="south_out_0" arrivalPos="478.50" arrivalPosLat="-0.00" arrivalSpeed="14.94" duration="75.50" routeLength="997.00" waitingTime="1.50" waitingCount="1" stopTime="0.00" timeLoss="9.02" rerouteNo="0" devices="tripinfo_f_6_north_in_far_straight_0.0 emissions_f_6_north_in_far_straight_0.0" vType="mix_private" speedFactor="0.90" vaporized="">
        <emissions CO_abs="1384.20" CO2_abs="208872.69" HC_abs="9.26" PMx_abs="22.56" NOx_abs="72.91" fuel_abs="67713.61" electricity_abs="0.00"/>
    </tripinfo>

    <tripinfo id="f_10_south_in_far_left_0.0" depart="0.00" departLane="south_in_far_3" departPos="4.60" departPosLat="0.00" departSpeed="0.11" departDelay="0.00" arrival="93.10" arrivalLane="west_out_1" arrivalPos="478.50" arrivalPosLat="-0.00" arrivalSpeed="18.00" duration="93.10" routeLength="991.36" waitingTime="27.30" waitingCount="1" stopTime="0.00" timeLoss="37.46" rerouteNo="0" devices="tripinfo_f_10_south_in_far_left_0.0 emissions_f_10_south_in_far_left_0.0" vType="mix_private" speedFactor="1.08" vaporized="">
        <emissions CO_abs="1854.57" CO2_abs="269981.14" HC_abs="12.43" PMx_abs="24.40" NOx_abs="97.33" fuel_abs="87524.13" electricity_abs="0.00"/>
    </tripinfo>

    <tripinfo id="f_7_north_in_far_left_0.0" depart="0.00" departLane="north_in_far_3" departPos="4.60" departPosLat="0.00" departSpeed="3.97" departDelay="0.00" arrival="95.80" arrivalLane="east_out_1" arrivalPos="478.50" arrivalPosLat="-0.00" arrivalSpeed="15.99" duration="95.80" routeLength="991.36" waitingTime="26.60" waitingCount="1" stopTime="0.00" timeLoss="33.26" rerouteNo="0" devices="tripinfo_f_7_north_in_far_left_0.0 emissions_f_7_north_in_far_left_0.0" vType="mix_taxi" speedFactor="0.96" vaporized="">
        <emissions CO_abs="1419.90" CO2_abs="244363.13" HC_abs="9.54" PMx_abs="23.67" NOx_abs="87.51" fuel_abs="79219.43" electricity_abs="0.00"/>
    </tripinfo>

    <tripinfo id="f_3_west_in_far_straight_0.0" depart="0.00" departLane="west_in_far_1" departPos="4.60" departPosLat="0.00" departSpeed="8.94" departDelay="0.00" arrival="106.10" arrivalLane="east_out_1" arrivalPos="478.50" arrivalPosLat="0.00" arrivalSpeed="18.17" duration="106.10" routeLength="997.00" waitingTime="40.80" waitingCount="1" stopTime="0.00" timeLoss="51.24" rerouteNo="0" devices="tripinfo_f_3_west_in_far_straight_0.0 emissions_f_3_west_in_far_straight_0.0" vType="mix_private" speedFactor="1.09" vaporized="">
        <emissions CO_abs="2102.05" CO2_abs="306170.00" HC_abs="14.06" PMx_abs="25.09" NOx_abs="112.24" fuel_abs="99256.24" electricity_abs="0.00"/>
    </tripinfo>

    <tripinfo id="f_0_east_in_far_straight_0.0" depart="0.00" departLane="east_in_far_1" departPos="4.60" departPosLat="0.00" departSpeed="12.51" departDelay="0.00" arrival="113.70" arrivalLane="west_out_0" arrivalPos="478.50" arrivalPosLat="-0.00" arrivalSpeed="13.95" duration="113.70" routeLength="997.00" waitingTime="35.90" waitingCount="1" stopTime="0.00" timeLoss="42.70" rerouteNo="0" devices="tripinfo_f_0_east_in_far_straight_0.0 emissions_f_0_east_in_far_straight_0.0" vType="mix_private" speedFactor="0.84" vaporized="">
        <emissions CO_abs="1193.34" CO2_abs="250266.13" HC_abs="7.98" PMx_abs="21.38" NOx_abs="89.73" fuel_abs="81133.30" electricity_abs="0.00"/>
    </tripinfo>

    <tripinfo id="bus_line1_0" depart="60.00" departLane="east_in_far_0" departPos="12.10" departPosLat="0.00" departSpeed="0.00" departDelay="0.00" arrival="222.00" arrivalLane="west_out_0" arrivalPos="478.50" arrivalPosLat="0.00" arrivalSpeed="16.66" duration="162.00" routeLength="989.50" waitingTime="8.90" waitingCount="1" stopTime="60.00" timeLoss="42.59" rerouteNo="0" devices="tripinfo_bus_line1_0 emissions_bus_line1_0" vType="bus" speedFactor="1.00" vaporized="">
        <emissions CO_abs="447.70" CO2_abs="1960067.78" HC_abs="35.18" PMx_abs="251.88" NOx_abs="825.29" fuel_abs="629908.41" electricity_abs="0.00"/>
    </tripinfo>

    <tripinfo id="f_0_east_in_far_straight_0.1" depart="182.90" departLane="east_in_far_1" departPos="4.60" departPosLat="0.00" departSpeed="6.91" departDelay="0.07" arrival="253.50" arrivalLane="west_out_0" arrivalPos="478.50" arrivalPosLat="-0.00" arrivalSpeed="14.79" duration="70.60" routeLength="997.00" waitingTime="0.00" waitingCount="0" stopTime="0.00" timeLoss="3.29" rerouteNo="0" devices="tripinfo_f_0_east_in_far_straight_0.1 emissions_f_0_east_in_far_straight_0.1" vType="mix_private" speedFactor="0.89" vaporized="">
        <emissions CO_abs="1385.24" CO2_abs="197031.11" HC_abs="9.27" PMx_abs="22.53" NOx_abs="70.02" fuel_abs="63874.86" electricity_abs="0.00"/>
    </tripinfo>

    <tripinfo id="bus_line2_0" depart="60.00" departLane="north_in_far_0" departPos="12.10" departPosLat="0.00" departSpeed="0.00" departDelay="0.00" arrival="257.90" arrivalLane="south_out_0" arrivalPos="478.50" arrivalPosLat="0.00" arrivalSpeed="16.64" duration="197.90" routeLength="989.50" waitingTime="44.90" waitingCount="1" stopTime="60.00" timeLoss="78.49" rerouteNo="0" devices="tripinfo_bus_line2_0 emissions_bus_line2_0" vType="bus" speedFactor="1.00" vaporized="">
        <emissions CO_abs="524.11" CO2_abs="2066346.27" HC_abs="39.94" PMx_abs="307.53" NOx_abs="987.42" fuel_abs="664062.78" electricity_abs="0.00"/>
    </tripinfo>

    <tripinfo id="f_3_west_in_far_straight_0.1" depart="263.30" departLane="west_in_far_1" departPos="4.60" departPosLat="0.00" departSpeed="7.60" departDelay="0.02" arrival="326.30" arrivalLane="east_out_0" arrivalPos="478.50" arrivalPosLat="-0.00" arrivalSpeed="16.77" duration="63.00" routeLength="997.00" waitingTime="0.00" waitingCount="0" stopTime="0.00" timeLoss="3.64" rerouteNo="0" devices="tripinfo_f_3_west_in_far_straight_0.1 emissions_f_3_west_in_far_straight_0.1" vType="mix_private" speedFactor="1.01" vaporized="">
        <emissions CO_abs="1641.53" CO2_abs="197308.22" HC_abs="11.00" PMx_abs="23.32" NOx_abs="71.61" fuel_abs="63964.59" electricity_abs="0.00"/>
    </tripinfo>

    <tripinfo id="f_21_south_in_far_straight_300.0" depart="300.00" departLane="south_in_far_2" departPos="4.60" departPosLat="0.00" departSpeed="14.26" departDelay="0.00" arrival="360.50" arrivalLane="north_out_2" arrivalPos="478.50" arrivalPosLat="-0.95" arrivalSpeed="17.24" duration="60.50" routeLength="997.00" waitingTime="0.00" waitingCount="0" stopTime="0.00" timeLoss="2.80" rerouteNo="0" devices="tripinfo_f_21_south_in_far_straight_300.0 emissions_f_21_south_in_far_straight_300.0" vType="mix_private" speedFactor="1.04" vaporized="">
        <emissions CO_abs="1559.17" CO2_abs="180586.83" HC_abs="10.49" PMx_abs="23.61" NOx_abs="66.55" fuel_abs="58543.82" electricity_abs="0.00"/>
    </tripinfo>

    <tripinfo id="f_6_north_in_far_straight_0.1" depart="299.20" departLane="north_in_far_1" departPos="4.60" departPosLat="0.00" departSpeed="4.55" departDelay="0.02" arrival="362.20" arrivalLane="south_out_0" arrivalPos="478.50" arrivalPosLat="-0.00" arrivalSpeed="17.15" duration="63.00" routeLength="997.00" waitingTime="0.00" waitingCount="0" stopTime="0.00" timeLoss="4.97" rerouteNo="0" devices="tripinfo_f_6_north_in_far_straight_0.1 emissions_f_6_north_in_far_straight_0.1" vType="mix_private" speedFactor="1.03" vaporized="">
        <emissions CO_abs="1668.59" CO2_abs="204186.54" HC_abs="11.20" PMx_abs="24.20" NOx_abs="73.56" fuel_abs="66194.42" electricity_abs="0.00"/>
    </tripinfo>

    <tripinfo id="f_13_east_in_far_left_300.0" depart="300.00" departLane="east_in_far_0" departPos="4.60" departPosLat="0.00" departSpeed="14.52" departDelay="0.00" arrival="363.20" arrivalLane="north_out_1" arrivalPos="478.50" arrivalPosLat="0.00" arrivalSpeed="16.54" duration="63.20" routeLength="969.21" waitingTime="0.00" waitingCount="0" stopTime="0.00" timeLoss="3.85" rerouteNo="0" devices="tripinfo_f_13_east_in_far_left_300.0 emissions_f_13_east_in_far_left_300.0" vType="mix_private" speedFactor="0.99" vaporized="">
        <emissions CO_abs="1411.08" CO2_abs="178403.22" HC_abs="9.47" PMx_abs="22.01" NOx_abs="64.41" fuel_abs="57835.87" electricity_abs="0.00"/>
    </tripinfo>

    <tripinfo id="f_9_south_in_far_straight_0.1" depart="292.60" departLane="south_in_far_1" departPos="4.60" departPosLat="0.00" departSpeed="8.24" departDelay="0.07" arrival="363.70" arrivalLane="north_out_0" arrivalPos="478.50" arrivalPosLat="-0.00" arrivalSpeed="14.47" duration="71.10" routeLength="997.00" waitingTime="0.00" waitingCount="0" stopTime="0.00" timeLoss="2.50" rerouteNo="0" devices="tripinfo_f_9_south_in_far_straight_0.1 emissions_f_9_south_in_far_straight_0.1" vType="mix_private" speedFactor="0.87" vaporized="">
        <emissions CO_abs="1190.60" CO2_abs="180664.12" HC_abs="7.99" PMx_abs="22.50" NOx_abs="64.42" fuel_abs="58569.03" electricity_abs="0.00"/>
    </tripinfo>

    <tripinfo id="f_23_south_in_far_right_300.0" depart="300.00" departLane="south_in_far_0" departPos="4.60" departPosLat="0.00" departSpeed="5.95" departDelay="0.00" arrival="369.10" arrivalLane="east_out_0" arrivalPos="478.50" arrivalPosLat="-0.00" arrivalSpeed="14.91" duration="69.10" routeLength="969.21" waitingTime="0.00" waitingCount="0" stopTime="0.00" timeLoss="3.46" rerouteNo="0" devices="tripinfo_f_23_south_in_far_right_300.0 emissions_f_23_south_in_far_right_300.0" vType="mix_private" speedFactor="0.90" vaporized="">
        <emissions CO_abs="1279.86" CO2_abs="187372.24" HC_abs="8.58" PMx_abs="22.06" NOx_abs="66.44" fuel_abs="60743.62" electricity_abs="0.00"/>
    </tripinfo>

    <tripinfo id="f_18_north_in_far_straight_300.0" depart="300.00" departLane="north_in_far_2" departPos="4.60" departPosLat="0.00" departSpeed="4.70" departDelay="0.00" arrival="369.30" arrivalLane="south_out_1" arrivalPos="478.50" arrivalPosLat="-0.00" arrivalSpeed="15.24" duration="69.30" routeLength="997.00" waitingTime="0.00" waitingCount="0" stopTime="0.00" timeLoss="4.07" rerouteNo="0" devices="tripinfo_f_18_north_in_far_straight_300.0 emissions_f_18_north_in_far_straight_300.0" vType="mix_taxi" speedFactor="0.92" vaporized="">
        <emissions CO_abs="1280.74" CO2_abs="188430.89" HC_abs="8.60" PMx_abs="23.02" NOx_abs="66.70" fuel_abs="61086.84" electricity_abs="0.00"/>
    </tripinfo>

    <tripinfo id="f_16_west_in_far_left_300.0" depart="300.00" departLane="west_in_far_0" departPos="4.60" departPosLat="0.00" departSpeed="0.72" departDelay="0.00" arrival="369.60" arrivalLane="south_out_0" arrivalPos="478.50" arrivalPosLat="0.06" arrivalSpeed="15.66" duration="69.60" routeLength="969.21" waitingTime="0.00" waitingCount="0" stopTime="0.00" timeLoss="6.71" rerouteNo="0" devices="tripinfo_f_16_west_in_far_left_300.0 emissions_f_16_west_in_far_left_300.0" vType="mix_private" speedFactor="0.94" vaporized="">
        <emissions CO_abs="1409.58" CO2_abs="205483.44" HC_abs="9.44" PMx_abs="22.55" NOx_abs="71.51" fuel_abs="66614.80" electricity_abs="0.00"/>
    </tripinfo>

    <tripinfo id="f_20_north_in_far_right_300.0" depart="303.30" departLane="north_in_far_0" departPos="4.60" departPosLat="0.00" departSpeed="1.93" departDelay="3.30" arrival="374.50" arrivalLane="west_out_1" arrivalPos="478.50" arrivalPosLat="0.00" arrivalSpeed="17.70" duration="71.20" routeLength="969.21" waitingTime="0.00" waitingCount="0" stopTime="0.00" timeLoss="15.73" rerouteNo="0" devices="tripinfo_f_20_north_in_far_right_300.0 emissions_f_20_north_in_far_right_300.0" vType="mix_private" speedFactor="1.07" vaporized="">
        <emissions CO_abs="1746.49" CO2_abs="230894.17" HC_abs="11.69" PMx_abs="23.47" NOx_abs="80.43" fuel_abs="74852.39" electricity_abs="0.00"/>
    </tripinfo>

    <tripinfo id="f_19_north_in_far_left_300.0" depart="300.00" departLane="north_in_far_3" departPos="4.60" departPosLat="0.00" departSpeed="10.88" departDelay="0.00" arrival="382.30" arrivalLane="east_out_1" arrivalPos="478.50" arrivalPosLat="-0.00" arrivalSpeed="17.06" duration="82.30" routeLength="991.36" waitingTime="17.70" waitingCount="1" stopTime="0.00" timeLoss="23.89" rerouteNo="0" devices="tripinfo_f_19_north_in_far_left_300.0 emissions_f_19_north_in_far_left_300.0" vType="mix_private" speedFactor="1.03" vaporized="">
        <emissions CO_abs="1611.90" CO2_abs="226878.77" HC_abs="10.82" PMx_abs="23.97" NOx_abs="82.71" fuel_abs="73551.09" electricity_abs="0.00"/>
    </tripinfo>

    <tripinfo id="f_22_south_in_far_left_300.0" depart="300.00" departLane="south_in_far_3" departPos="4.60" departPosLat="0.00" departSpeed="11.40" departDelay="0.00" arrival="391.80" arrivalLane="west_out_0" arrivalPos="478.50" arrivalPosLat="-0.00" arrivalSpeed="12.72" duration="91.80" routeLength="991.36" waitingTime="9.30" waitingCount="1" stopTime="0.00" timeLoss="13.74" rerouteNo="0" devices="tripinfo_f_22_south_in_far_left_300.0 emissions_f_22_south_in_far_left_300.0" vType="mix_private" speedFactor="0.77" vaporized="">
        <emissions CO_abs="936.57" CO2_abs="193150.53" HC_abs="6.27" PMx_abs="20.51" NOx_abs="67.77" fuel_abs="62617.03" electricity_abs="0.00"/>
    </tripinfo>

    <tripinfo id="f_12_east_in_far_straight_300.0" depart="300.00" departLane="east_in_far_1" departPos="4.60" departPosLat="0.00" departSpeed="1.13" departDelay="0.00" arrival="393.60" arrivalLane="west_out_1" arrivalPos="478.50" arrivalPosLat="0.00" arrivalSpeed="18.69" duration="93.60" routeLength="997.00" waitingTime="26.30" waitingCount="1" stopTime="0.00" timeLoss="40.23" rerouteNo="0" devices="tripinfo_f_12_east_in_far_straight_300.0 emissions_f_12_east_in_far_straight_300.0" vType="mix_private" speedFactor="1.12" vaporized="">
        <emissions CO_abs="2274.28" CO2_abs="305550.98" HC_abs="15.18" PMx_abs="24.97" NOx_abs="110.05" fuel_abs="99055.16" electricity_abs="0.00"/>
    </tripinfo>

    <tripinfo id="f_15_west_in_far_straight_300.0" depart="300.00" departLane="west_in_far_1" departPos="7.60" departPosLat="0.00" departSpeed="11.51" departDelay="0.00" arrival="398.30" arrivalLane="east_out_0" arrivalPos="478.50" arrivalPosLat="-0.00" arrivalSpeed="16.77" duration="98.30" routeLength="994.00" waitingTime="25.90" waitingCount="1" stopTime="0.00" timeLoss="39.17" rerouteNo="0" devices="tripinfo_f_15_west_in_far_straight_300.0 emissions_f_15_west_in_far_straight_300.0" vType="mix_truck" speedFactor="1.01" vaporized="">
        <emissions CO_abs="143.90" CO2_abs="653118.46" HC_abs="13.10" PMx_abs="144.01" NOx_abs="241.08" fuel_abs="209901.39" electricity_abs="0.00"/>
    </tripinfo>

    <tripinfo id="f_17_west_in_far_right_300.0" depart="300.00" departLane="west_in_far_3" departPos="4.60" departPosLat="0.00" departSpeed="9.43" departDelay="0.00" arrival="416.70" arrivalLane="north_out_2" arrivalPos="478.50" arrivalPosLat="0.00" arrivalSpeed="18.32" duration="116.70" routeLength="991.36" waitingTime="54.90" waitingCount="1" stopTime="0.00" timeLoss="62.04" rerouteNo="0" devices="tripinfo_f_17_west_in_far_right_300.0 emissions_f_17_west_in_far_right_300.0" vType="mix_private" speedFactor="1.10" vaporized="">
        <emissions CO_abs="1893.15" CO2_abs="297160.71" HC_abs="12.70" PMx_abs="24.47" NOx_abs="111.11" fuel_abs="96335.86" electricity_abs="0.00"/>
    </tripinfo>

    <tripinfo id="f_14_east_in_far_right_300.0" depart="300.00" departLane="east_in_far_3" departPos="4.60" departPosLat="0.00" departSpeed="5.20" departDelay="0.00" arrival="420.10" arrivalLane="south_out_1" arrivalPos="478.50" arrivalPosLat="-0.00" arrivalSpeed="16.05" duration="120.10" routeLength="991.36" waitingTime="50.90" waitingCount="1" stopTime="0.00" timeLoss="57.89" rerouteNo="0" devices="tripinfo_f_14_east_in_far_right_300.0 emissions_f_14_east_in_far_right_300.0" vType="mix_private" speedFactor="0.97" vaporized="">
        <emissions CO_abs="1515.15" CO2_abs="284552.29" HC_abs="10.15" PMx_abs="22.94" NOx_abs="104.01" fuel_abs="92248.45" electricity_abs="0.00"/>
    </tripinfo>

    <tripinfo id="bus_line1_1" depart="240.00" departLane="east_in_far_0" departPos="12.10" departPosLat="0.00" departSpeed="0.00" departDelay="0.00" arrival="437.80" arrivalLane="west_out_0" arrivalPos="478.50" arrivalPosLat="0.00" arrivalSpeed="16.66" duration="197.80" routeLength="989.50" waitingTime="44.70" waitingCount="1" stopTime="60.00" timeLoss="78.40" rerouteNo="0" devices="tripinfo_bus_line1_1 emissions_bus_line1_1" vType="bus" speedFactor="1.00" vaporized="">
        <emissions CO_abs="523.42" CO2_abs="2064977.86" HC_abs="39.89" PMx_abs="306.59" NOx_abs="984.83" fuel_abs="663623.13" electricity_abs="0.00"/>
    </tripinfo>

    <tripinfo id="f_18_north_in_far_straight_300.1" depart="385.80" departLane="north_in_far_1" departPos="4.60" departPosLat="0.00" departSpeed="5.43" departDelay="0.08" arrival="442.70" arrivalLane="south_out_1" arrivalPos="478.50" arrivalPosLat="0.00" arrivalSpeed="19.45" duration="56.90" routeLength="997.00" waitingTime="0.00" waitingCount="0" stopTime="0.00" timeLoss="5.74" rerouteNo="0" devices="tripinfo_f_18_north_in_far_straight_300.1 emissions_f_18_north_in_far_straight_300.1" vType="mix_private" speedFactor="1.17" vaporized="">
        <emissions CO_abs="2152.60" CO2_abs="221283.77" HC_abs="14.44" PMx_abs="25.23" NOx_abs="81.73" fuel_abs="71736.90" electricity_abs="0.00"/>
    </tripinfo>

    <tripinfo id="f_21_south_in_far_straight_300.1" depart="383.90" departLane="south_in_far_1" departPos="4.60" departPosLat="0.00" departSpeed="0.49" departDelay="0.09" arrival="446.90" arrivalLane="north_out_0" arrivalPos="478.50" arrivalPosLat="-0.00" arrivalSpeed="17.72" duration="63.00" routeLength="997.00" waitingTime="0.00" waitingCount="0" stopTime="0.00" timeLoss="6.71" rerouteNo="0" devices="tripinfo_f_21_south_in_far_straight_300.1 emissions_f_21_south_in_far_straight_300.1" vType="mix_private" speedFactor="1.06" vaporized="">
        <emissions CO_abs="1775.40" CO2_abs="213600.30" HC_abs="11.90" PMx_abs="24.18" NOx_abs="76.44" fuel_abs="69246.08" electricity_abs="0.00"/>
    </tripinfo>

    <tripinfo id="f_12_east_in_far_straight_300.1" depart="352.40" departLane="east_in_far_1" departPos="4.60" departPosLat="0.00" departSpeed="10.81" departDelay="0.02" arrival="469.70" arrivalLane="west_out_0" arrivalPos="478.50" arrivalPosLat="-0.00" arrivalSpeed="16.77" duration="117.30" routeLength="997.00" waitingTime="50.00" waitingCount="1" stopTime="0.00" timeLoss="58.03" rerouteNo="0" devices="tripinfo_f_12_east_in_far_straight_300.1 emissions_f_12_east_in_far_straight_300.1" vType="mix_taxi" speedFactor="1.01" vaporized="">
        <emissions CO_abs="1742.30" CO2_abs="297953.73" HC_abs="11.67" PMx_abs="24.22" NOx_abs="109.08" fuel_abs="96592.93" electricity_abs="0.00"/>
    </tripinfo>

    <tripinfo id="f_12_east_in_far_straight_300.2" depart="404.80" departLane="east_in_far_1" departPos="4.60" departPosLat="0.00" departSpeed="9.55" departDelay="0.03" arrival="470.20" arrivalLane="west_out_2" arrivalPos="478.50" arrivalPosLat="0.00" arrivalSpeed="17.40" duration="65.40" routeLength="997.00" waitingTime="0.00" waitingCount="0" stopTime="0.00" timeLoss="8.25" rerouteNo="0" devices="tripinfo_f_12_east_in_far_straight_300.2 emissions_f_12_east_in_far_straight_300.2" vType="mix_private" speedFactor="1.05" vaporized="">
        <emissions CO_abs="1916.03" CO2_abs="223454.32" HC_abs="12.80" PMx_abs="23.34" NOx_abs="80.63" fuel_abs="72440.62" electricity_abs="0.00"/>
    </tripinfo>

    <tripinfo id="bus_line2_1" depart="300.00" departLane="north_in_far_0" departPos="12.10" departPosLat="0.00" departSpeed="0.00" departDelay="0.00" arrival="473.80" arrivalLane="south_out_0" arrivalPos="478.50" arrivalPosLat="0.00" arrivalSpeed="16.64" duration="173.80" routeLength="989.50" waitingTime="20.80" waitingCount="1" stopTime="60.00" timeLoss="54.36" rerouteNo="0" devices="tripinfo_bus_line2_1 emissions_bus_line2_1" vType="bus" speedFactor="1.00" vaporized="">
        <emissions CO_abs="472.76" CO2_abs="1993657.88" HC_abs="36.74" PMx_abs="270.22" NOx_abs="878.49" fuel_abs="640703.11" electricity_abs="0.00"/>
    </tripinfo>

    <tripinfo id="f_15_west_in_far_straight_300.1" depart="375.50" departLane="west_in_far_1" departPos="7.60" departPosLat="0.00" departSpeed="2.38" departDelay="0.07" arrival="474.40" arrivalLane="east_out_0" arrivalPos="478.50" arrivalPosLat="-0.00" arrivalSpeed="15.57" duration="98.90" routeLength="994.00" waitingTime="19.30" waitingCount="1" stopTime="0.00" timeLoss="35.29" rerouteNo="0" devices="tripinfo_f_15_west_in_far_straight_300.1 emissions_f_15_west_in_far_straight_300.1" vType="mix_truck" speedFactor="0.94" vaporized="">
        <emissions CO_abs="150.65" CO2_abs="634365.31" HC_abs="12.90" PMx_abs="142.47" NOx_abs="238.44" fuel_abs="203873.54" electricity_abs="0.00"/>
    </tripinfo>

    <tripinfo id="f_16_west_in_far_left_300.1" depart="425.80" departLane="west_in_far_0" departPos="7.60" departPosLat="0.00" departSpeed="15.50" departDelay="0.08" arrival="488.20" arrivalLane="south_out_0" arrivalPos="478.50" arrivalPosLat="-0.00" arrivalSpeed="16.66" duration="62.40" routeLength="966.21" waitingTime="0.00" waitingCount="0" stopTime="0.00" timeLoss="3.51" rerouteNo="0" devices="tripinfo_f_16_west_in_far_left_300.1 emissions_f_16_west_in_far_left_300.1" vType="mix_truck" speedFactor="1.00" vaporized="">
        <emissions CO_abs="84.78" CO2_abs="465145.75" HC_abs="8.65" PMx_abs="94.51" NOx_abs="210.85" fuel_abs="149496.91" electricity_abs="0.00"/>
    </tripinfo>

    <tripinfo id="f_23_south_in_far_right_300.1" depart="439.70" departLane="south_in_far_0" departPos="4.60" departPosLat="0.00" departSpeed="1.17" departDelay="0.01" arrival="501.50" arrivalLane="east_out_1" arrivalPos="478.50" arrivalPosLat="0.00" arrivalSpeed="17.46" duration="61.80" routeLength="969.21" waitingTime="0.00" waitingCount="0" stopTime="0.00" timeLoss="5.47" rerouteNo="0" devices="tripinfo_f_23_south_in_far_right_300.1 emissions_f_23_south_in_far_right_300.1" vType="mix_taxi" speedFactor="1.05" vaporized="">
        <emissions CO_abs="1666.50" CO2_abs="205928.50" HC_abs="11.19" PMx_abs="23.87" NOx_abs="73.53" fuel_abs="66759.06" electricity_abs="0.00"/>
    </tripinfo>

    <tripinfo id="f_13_east_in_far_left_300.1" depart="457.20" departLane="east_in_far_0" departPos="4.60" departPosLat="0.00" departSpeed="5.36" departDelay="0.05" arrival="519.60" arrivalLane="north_out_0" arrivalPos="478.50" arrivalPosLat="1.25" arrivalSpeed="17.05" duration="62.40" routeLength="969.21" waitingTime="0.00" waitingCount="0" stopTime="0.00" timeLoss="4.67" rerouteNo="0" devices="tripinfo_f_13_east_in_far_left_300.1 emissions_f_13_east_in_far_left_300.1" vType="mix_private" speedFactor="1.02" vaporized="">
        <emissions CO_abs="1646.47" CO2_abs="200828.82" HC_abs="11.03" PMx_abs="22.90" NOx_abs="72.37" fuel_abs="65105.87" electricity_abs="0.00"/>
    </tripinfo>

    <tripinfo id="f_12_east_in_far_straight_300.3" depart="457.20" departLane="east_in_far_1" departPos="4.60" departPosLat="0.00" departSpeed="15.91" departDelay="0.05" arrival="547.60" arrivalLane="west_out_0" arrivalPos="478.50" arrivalPosLat="-0.00" arrivalSpeed="15.98" duration="90.40" routeLength="997.00" waitingTime="20.10" waitingCount="1" stopTime="0.00" timeLoss="28.21" rerouteNo="0" devices="tripinfo_f_12_east_in_far_straight_300.3 emissions_f_12_east_in_far_straight_300.3" vType="mix_private" speedFactor="0.96" vaporized="">
        <emissions CO_abs="1456.04" CO2_abs="231230.25" HC_abs="9.75" PMx_abs="22.37" NOx_abs="82.92" fuel_abs="74961.81" electricity_abs="0.00"/>
    </tripinfo>
